 VARIABLES="X","Y","T"
 Zone T='Coordinate.'
 I=         488 J=         894 ,F=FEPOINT ET=Triangle
   1.00000000000000       0.000000000000000E+000   50.0000000000000     
   1.00000000000000        1.00000000000000        49.9980010520548     
   1.00000000000000       5.000000000000000E-002   50.0000000000000     
   1.00000000000000       0.100000000000000        50.0000000000000     
   1.00000000000000       0.150000000000000        50.0000000000000     
   1.00000000000000       0.200000000000000        50.0000000000000     
   1.00000000000000       0.250000000000000        50.0000000000000     
   1.00000000000000       0.300000000000000        50.0000000000000     
   1.00000000000000       0.350000000000000        50.0000000000000     
   1.00000000000000       0.400000000000000        50.0000000000000     
   1.00000000000000       0.450000000000000        50.0000000000000     
   1.00000000000000       0.500000000000000        50.0000000000000     
   1.00000000000000       0.550000000000000        50.0000000000000     
   1.00000000000000       0.600000000000000        50.0000000000000     
   1.00000000000000       0.650000000000000        50.0000000000000     
   1.00000000000000       0.700000000000000        50.0000000000000     
   1.00000000000000       0.750000000000000        50.0000000000000     
   1.00000000000000       0.800000000000000        50.0000000000000     
   1.00000000000000       0.850000000000000        50.0000000000000     
   1.00000000000000       0.900000000000000        50.0000000000000     
   1.00000000000000       0.950000000000000        50.0000000000000     
  0.000000000000000E+000  0.000000000000000E+000   100.000000000000     
  5.000000000000000E-002  0.000000000000000E+000   100.000000000000     
  0.100000000000000       0.000000000000000E+000   100.000000000000     
  0.150000000000000       0.000000000000000E+000   100.000000000000     
  0.200000000000000       0.000000000000000E+000   100.000000000000     
  0.250000000000000       0.000000000000000E+000   100.000000000000     
  0.300000000000000       0.000000000000000E+000   100.000000000000     
  0.350000000000000       0.000000000000000E+000   100.000000000000     
  0.400000000000000       0.000000000000000E+000   100.000000000000     
  0.450000000000000       0.000000000000000E+000   100.000000000000     
  0.500000000000000       0.000000000000000E+000   100.000000000000     
  0.550000000000000       0.000000000000000E+000   100.000000000000     
  0.600000000000000       0.000000000000000E+000   100.000000000000     
  0.650000000000000       0.000000000000000E+000   100.000000000000     
  0.700000000000000       0.000000000000000E+000   100.000000000000     
  0.750000000000000       0.000000000000000E+000   100.000000000000     
  0.800000000000000       0.000000000000000E+000   100.000000000000     
  0.850000000000000       0.000000000000000E+000   100.000000000000     
  0.900000000000000       0.000000000000000E+000   100.000000000000     
  0.950000000000000       0.000000000000000E+000   100.000000000000     
  0.000000000000000E+000   1.00000000000000        26.0808018221623     
  0.000000000000000E+000  0.950000000000000        27.0076068814636     
  0.000000000000000E+000  0.900000000000000        30.4205090790454     
  0.000000000000000E+000  0.850000000000000        28.5736899988499     
  0.000000000000000E+000  0.800000000000000        28.6347280319291     
  0.000000000000000E+000  0.750000000000000        28.6912815025899     
  0.000000000000000E+000  0.700000000000000        28.7094360609286     
  0.000000000000000E+000  0.650000000000000        28.6807915483082     
  0.000000000000000E+000  0.600000000000000        28.8568567326884     
  0.000000000000000E+000  0.550000000000000        26.3342461365781     
  0.000000000000000E+000  0.500000000000000        26.3509336660736     
  0.000000000000000E+000  0.450000000000000        28.8654393177039     
  0.000000000000000E+000  0.400000000000000        28.6906783035429     
  0.000000000000000E+000  0.350000000000000        28.7311379950704     
  0.000000000000000E+000  0.300000000000000        28.7240684514149     
  0.000000000000000E+000  0.250000000000000        28.6973302445588     
  0.000000000000000E+000  0.200000000000000        28.6357903164150     
  0.000000000000000E+000  0.150000000000000        28.5897766807180     
  0.000000000000000E+000  0.100000000000000        30.4469560369227     
  0.000000000000000E+000  5.000000000000000E-002   22.7913153482233     
  0.950000000000000        1.00000000000000        6.13248047653322     
  0.900000000000000        1.00000000000000       0.721761687568158     
  0.850000000000000        1.00000000000000       0.204212503263818     
  0.800000000000000        1.00000000000000       0.170047207262512     
  0.750000000000000        1.00000000000000       0.173636515623037     
  0.700000000000000        1.00000000000000       0.164057572498286     
  0.650000000000000        1.00000000000000       0.139269038042866     
  0.600000000000000        1.00000000000000       9.238235161040036E-002
  0.550000000000000        1.00000000000000       3.009912255235325E-002
  0.500000000000000        1.00000000000000       8.101686932589609E-002
  0.450000000000000        1.00000000000000       0.398346826509530     
  0.400000000000000        1.00000000000000       0.260766778279641     
  0.350000000000000        1.00000000000000       0.213182368280185     
  0.300000000000000        1.00000000000000       0.207643598938682     
  0.250000000000000        1.00000000000000       0.199905129089561     
  0.200000000000000        1.00000000000000       0.184245824380304     
  0.150000000000000        1.00000000000000       0.217511435106533     
  0.100000000000000        1.00000000000000       0.727662937632647     
  5.000000000000000E-002   1.00000000000000        5.39533924084136     
  0.965001270128000       3.545778635770000E-002  0.516423382881945     
  0.524849096474000       3.371036819970000E-002  0.540613437431509     
  0.479312027219000       0.510546975896000        17.6117309924561     
  0.964548318679000       0.965005244986000        3.19957021024371     
  3.545299569480000E-002  0.965005162995000        5.23079351419679     
  3.545531960320000E-002  3.499127586120000E-002  0.398877557244337     
  0.958461124619000       7.893014433060000E-002   3.39986039959759     
  7.891379239890001E-002  0.958470721577000        10.0349805516159     
  4.925325930920000E-002  8.079012469330001E-002   4.20190495448142     
  7.891781776030000E-002  4.150914433790000E-002  0.600639518368462     
  0.921091152638000       0.958474151989000        10.8983686879515     
  0.950754201138000       0.919201322738000        1.95783877285059     
  0.919189765169000       4.926137197060000E-002  0.535443943765355     
  4.924182001780000E-002  0.919203979902000        2.96658246867153     
  0.956105007528000       0.128757617273000        3.13936873353953     
  0.128713011028000       0.956119830177000        10.8178036473181     
  4.349787616220000E-002  0.131913416075000        4.20148019316079     
  0.128734997293000       4.385783387820000E-002  0.714643416706921     
  0.956495142095000       0.868056474373000        2.78478955633864     
  0.871306769156000       0.956144629758000        10.7427004330752     
  0.868039180081000       4.351541613610000E-002  0.609962363853995     
  4.348620295230000E-002  0.868067880843000        4.24665102117578     
  0.956083777020000       0.818870457810000        3.24207190548991     
  0.821051712665000       0.954932892433000        10.9903236324848     
  0.818836338045000       4.392737344770000E-002  0.735451897461590     
  4.388728836300000E-002  0.818889783380000        4.96472475133109     
  0.954823399990000       0.179122927079000        3.45305973112172     
  0.179013177725000       0.954826378029000        10.9952501260277     
  0.179080027769000       4.512408614930000E-002  0.823922192551000     
  4.390823804220000E-002  0.181067067565000        4.96743282750529     
  0.954601847266000       0.229635201346000        3.53917251677943     
  0.229379811626000       0.954543738051000        11.0987712754430     
  0.229565521402000       4.533847736020000E-002  0.854366728278988     
  4.435008156540000E-002  0.230723635489000        4.98169607149441     
  0.955687570371000       0.769156689039000        3.27789947635616     
  0.770785264203000       0.954878217395000        11.0658201218851     
  0.769091481784000       4.433567061180000E-002  0.760051724904911     
  4.430130396760000E-002  0.769177874283000        4.97681810020334     
  0.279984468220000       4.521765217830000E-002  0.842609507182448     
  4.475304345240000E-002  0.280676197532000        5.10082777200736     
  0.954734488485000       0.280086417174000        3.50765473453383     
  0.279525292711000       0.954520663475000        11.0139168944481     
  0.718979748779000       4.462083253980000E-002  0.788694838007961     
  4.463187525250000E-002  0.719104764597000        5.08739262607328     
  0.955430658725000       0.719086758491000        3.35478304539122     
  0.720797242285000       0.955340727443000        10.9331171330389     
  0.330461752322000       4.495839499730000E-002  0.819386002000237     
  4.493240716820000E-002  0.330896709594000        5.16017112616931     
  0.955026848954000       0.330599316198000        3.44935431623303     
  0.329471760812000       0.954504689496000        10.9887841259897     
  0.668488396220000       4.453177376080000E-002  0.784449158832923     
  4.463374669090000E-002  0.668658481265000        5.12149816294059     
  0.955557294545000       0.668637946564000        3.34943044200314     
  0.670995036514000       0.956101967361000        10.8129430889977     
  0.381110772941000       4.459671163710000E-002  0.790547034101618     
  4.479122143820000E-002  0.381442416243000        5.16380667624858     
  0.955434894956000       0.381280483232000        3.38131657547134     
  0.379324193096000       0.954313926864000        10.9080231600898     
  0.617621123247000       4.382219273680000E-002  0.722822802319464     
  4.403157778720000E-002  0.617837724400000        5.00031648680114     
  0.956298447045000       0.617802589994000        3.20898889708739     
  0.621241352349000       0.956841959180000        10.7237336441078     
  0.567222346544000       4.166290732910000E-002  0.557597756075159     
  4.194455598680000E-002  0.567463886164000        4.29470730746912     
  0.958467620010000       0.567414567890000        2.59328037837785     
  0.572004741743000       0.958099489641000        9.45015992856382     
  0.432027848330000       4.380934535290000E-002  0.721246844481550     
  4.409462115880000E-002  0.432324683642000        5.01491580853544     
  0.956266569749000       0.432215948481000        3.21942647937577     
  0.429883164748000       0.953584048626000        12.4787494838238     
  4.196182284470000E-002  0.482724463355000        4.29005718196531     
  0.482452568120000       4.165018440330000E-002  0.556332432731112     
  0.958454685462000       0.482638398383000        2.59596891954916     
  0.484712284100000       0.949636035283000        6.03202109678807     
  0.914548541419000       0.105283694258000        9.08616404332973     
  3.394872631000000E-002  0.525076763933000        5.83014940596680     
  0.966421390106000       0.525020903523000        3.15628990483145     
  0.528291091118000       0.964024690014000        18.1736837484221     
  0.504844172582000       0.826341936928000        12.5382748538510     
  0.881005562305000       8.385491607270000E-002   14.6646181639030     
  0.838023648708000       8.748002858180000E-002   9.43539798351213     
  0.788921782163000       8.805497343179999E-002   10.5675248913627     
  0.738952167479000       8.891543375869999E-002   10.5821505111615     
  0.688306132075000       8.915109100570000E-002   10.7922527067742     
  0.636706774187000       8.846091881960000E-002   10.9580381769120     
  0.583244671235000       8.625914775180001E-002   12.2891016102434     
  0.524784526475000       7.974082468160000E-002   9.29898906332214     
  0.910047198736000       0.156875517951000        11.1275242391356     
  0.909332220807000       0.208615257445000        9.51718411745291     
  0.909344116470000       0.259592695290000        9.56962855939681     
  0.909970753568000       0.310537149992000        9.59702559000666     
  0.910598993092000       0.361591327922000        9.62619470939844     
  0.911642587988000       0.413299134322000        9.71314441588422     
  0.913972916894000       0.466740634335000        10.9322198035784     
  0.105218285520000       0.914583313929000        7.52915385311333     
  8.378853527089999E-002  0.881051353630000        12.9734612661988     
  8.738096860580000E-002  0.838112180085000        8.13491211263459     
  8.793192079070000E-002  0.789077000958000        8.98095536570556     
  8.883344206830000E-002  0.739178983010000        9.03738849803602     
  8.922998467120000E-002  0.688599171036000        9.22854556079885     
  8.879452545909999E-002  0.637064177208000        9.37345942842478     
  8.682448578900000E-002  0.583654426302000        10.6223206591613     
  8.037340968720000E-002  0.525188296548000        6.90206251484447     
  0.156712389152000       0.910087372898000        9.52749267580180     
  0.208252120454000       0.909306138864000        8.15617900484907     
  0.258819386004000       0.909087352910000        8.17913230643121     
  0.308945420783000       0.909217714241000        8.15238671398404     
  0.358442156321000       0.908981323033000        8.09672726782694     
  0.407236083496000       0.908520575264000        7.93625575358588     
  0.454733974281000       0.907397416534000        7.00761534005549     
  0.105246254856000       8.538311737150001E-002   10.2290199765995     
  8.381616500800000E-002  0.118915464835000        12.2973702145541     
  8.742379522000000E-002  0.161824272571000        8.21512939359605     
  8.801612121810000E-002  0.210794303720000        8.96660149016517     
  8.902136877180000E-002  0.260540939770000        9.01960295508378     
  8.964583659229999E-002  0.310783317466000        9.17535431501020     
  8.971637433220001E-002  0.361578020711000        9.29976634062515     
  8.904506326099999E-002  0.413243015905000        9.41295259395209     
  8.691360210200000E-002  0.466716103038000        10.7034595945978     
  0.156794218731000       8.983828129710000E-002   12.4589592547506     
  0.208476966567000       9.051844501600000E-002   10.6519270645089     
  0.259388676983000       9.051480432610000E-002   10.7239034317713     
  0.310258889743000       8.995313148360000E-002   10.7766064418801     
  0.361238543014000       8.943096456890000E-002   10.8331666770667     
  0.412894312236000       8.850137568440000E-002   10.9594549096633     
  0.466333470712000       8.625453212509999E-002   12.3525284856734     
  0.894772004584000       0.914589152000000        7.50863390456473     
  0.916176500446000       0.881040102781000        13.3926237897085     
  0.912542643442000       0.838079163086000        8.42596310413481     
  0.911970443315000       0.789024033142000        9.33821302006562     
  0.911155406488000       0.739128284755000        9.37983080057232     
  0.911007140803000       0.688567245105000        9.55502076796457     
  0.911792223108000       0.637041275315000        9.67629865259542     
  0.914050791142000       0.583625208600000        10.9184167239853     
  0.920561226436000       0.525169671385000        7.42920483838068     
  0.843284828740000       0.910157787809000        9.52944977594163     
  0.791812311529000       0.909625290798000        8.12996492217987     
  0.741434550063000       0.910064675314000        8.09335720856906     
  0.691631928421000       0.911535473249000        7.92533483984774     
  0.642265802791000       0.913263364610000        7.74483939799973     
  0.592014457994000       0.914471945964000        8.98691767263685     
  0.537953014702000       0.917486479763000        4.14658438463541     
  0.496529572203000       0.901759979860000        12.8838634081426     
  0.864069118650000       0.131936560507000        4.60278887652442     
  0.131752643064000       0.864167168167000        4.90114165219538     
  0.131830404680000       0.135748683233000        4.65154653440890     
  0.868138354617000       0.864158968581000        4.88906336947150     
  0.812972133539000       0.864940309945000        8.23841237641224     
  0.762095566300000       0.863914378914000        10.0126390957604     
  0.711620893187000       0.866311096066000        8.36440883011907     
  0.662793930830000       0.868764898678000        8.41128252114248     
  0.615353035174000       0.871902406331000        6.56122280495999     
  0.864718893777000       0.187252351855000        8.10048106071871     
  0.863369571845000       0.238527136427000        9.90861434356045     
  0.864952028532000       0.290004239397000        8.42338979723898     
  0.865681569832000       0.341019591361000        8.47078979599593     
  0.866599938838000       0.392365632680000        8.57990167970377     
  0.868263228439000       0.444647038489000        8.61203373166713     
  0.186834748294000       0.864822105104000        8.21981988487240     
  0.237707706661000       0.863289111668000        10.0091590683411     
  0.288450092578000       0.864318431371000        8.46049878204254     
  0.338102456135000       0.864023426654000        8.44199762543210     
  0.386932615260000       0.863390868287000        8.33092916940078     
  0.434435067374000       0.862979750477000        8.48625400390124     
  0.187036687050000       0.134997506869000        7.82614069581126     
  0.238197674969000       0.136308215858000        9.61054027757405     
  0.289554387816000       0.134810682415000        8.15658013625224     
  0.340441180059000       0.134266228828000        8.21372190392447     
  0.391675350359000       0.133568338499000        8.34393186896479     
  0.443911379160000       0.132093832376000        8.38983810510506     
  0.567548083498000       0.870257806948000        8.35620894458821     
  0.869565998319000       0.810483399422000        7.26975424843596     
  0.867460976488000       0.760480595038000        8.38604011103481     
  0.866536897622000       0.710031140057000        8.41588507366669     
  0.866966912146000       0.658836013609000        8.55330524313045     
  0.868604198196000       0.606492834588000        8.56971758003250     
  0.871186767864000       0.552593476552000        9.77482409972563     
  0.130192025997000       0.810563424091000        7.26410747003044     
  0.132270423252000       0.760605418218000        8.38012324229386     
  0.133469205500000       0.710138816582000        8.43268502732213     
  0.133662683627000       0.658874916366000        8.63474769790115     
  0.132719817027000       0.606464687249000        8.72763930627137     
  0.130512875730000       0.552476149028000        10.0252267359012     
  0.810352382325000       0.130457682755000        7.06904255045086     
  0.760259835036000       0.132586148114000        8.16276215393071     
  0.709686494912000       0.133642849367000        8.21460079601824     
  0.658371850339000       0.133415890341000        8.36374278262841     
  0.605935253901000       0.131938230439000        8.39067759684580     
  0.551961128668000       0.129392525438000        9.52883299978748     
  0.130314656636000       0.189302609795000        7.28428225648858     
  0.132511350484000       0.239153472274000        8.38242516728242     
  0.133942827931000       0.289390809558000        8.41983805782249     
  0.134555135899000       0.340164817121000        8.56700918168543     
  0.134323158109000       0.391629710591000        8.71346795908065     
  0.133102747665000       0.444128124766000        8.76614837536742     
  0.168490330524000       0.172085918734000        12.4675039837569     
  0.168303560946000       0.827743325287000        12.3848612518683     
  0.827523599071000       0.168735695888000        12.5226387448166     
  0.831325651846000       0.827708279102000        12.4330222051114     
  0.479061112048000       0.863562189940000        5.18925215070370     
  0.523968722075000       0.865609718316000        6.87928316306954     
  0.216333884351000       0.185420625730000        4.87654382736277     
  0.783277735137000       0.814317923395000        4.92139336228784     
  0.215912633467000       0.814264084107000        4.80817294055650     
  0.813949393020000       0.216807346394000        4.93829858154654     
  0.730584248084000       0.821260147119000        7.60756954392821     
  0.269162437110000       0.179032505687000        7.58848631311079     
  0.820392910508000       0.269829253474000        7.66822208532643     
  0.268318993295000       0.820271977525000        7.46313524660655     
  0.319272337982000       0.178769089172000        8.64122174378444     
  0.820915703451000       0.320134424480000        8.68017159443288     
  0.317663486445000       0.819803423157000        8.44626797739708     
  0.681286172332000       0.823121019421000        8.53508612745827     
  0.369768942290000       0.178551573931000        8.59694840152094     
  0.821525492577000       0.370832310971000        8.59337300331104     
  0.366871686620000       0.818772495354000        8.32347522314702     
  0.633953891042000       0.827372827628000        6.50476872268869     
  0.420867974524000       0.177799475623000        8.81316078185478     
  0.822606544849000       0.422059008613000        8.76845041323336     
  0.415869457131000       0.817904422346000        8.36047352971820     
  0.592354409366000       0.834452637911000        11.3024135773075     
  0.130623880041000       0.498170842118000        10.1050917392167     
  0.824787692784000       0.783247811450000        7.99785327890633     
  0.174556675425000       0.783430291967000        7.89509260712627     
  0.782986671750000       0.175205159258000        8.03919632859245     
  0.174879648142000       0.216339487033000        7.90083461818688     
  0.497761721955000       0.129461610035000        9.60542852520187     
  0.871039693608000       0.498462771223000        9.89330193708700     
  0.822364208094000       0.732823702059000        8.53394664547459     
  0.821960377179000       0.681846624927000        8.60503364526210     
  0.823440036728000       0.630305274090000        8.66537094736635     
  0.825172724664000       0.578266805846000        8.70914636742306     
  0.176980094162000       0.733154396624000        8.39300076376894     
  0.178148715259000       0.682137985523000        8.54209833678304     
  0.178070049450000       0.630416480791000        8.78888475802738     
  0.177425430272000       0.578153261512000        8.97219410689761     
  0.732420685318000       0.177720094512000        8.57858505762695     
  0.681276308708000       0.178470326168000        8.67577778947246     
  0.629599545293000       0.177369810669000        8.78701278232361     
  0.577430201563000       0.175773995168000        8.82523806842195     
  0.177536476462000       0.266548689891000        8.42230269977845     
  0.179098353142000       0.317391362141000        8.56249457197863     
  0.179488966668000       0.368754510139000        8.75286111728358     
  0.179128168281000       0.420513115734000        8.91420963425150     
  0.464016383904000       0.818655069251000        7.28951020049853     
  0.549767044571000       0.816046324076000        5.01389759712847     
  0.472748362521000       0.176284504659000        8.91967874777032     
  0.824354976125000       0.473904567248000        8.82324723120002     
  0.525045221568000       0.175181918440000        8.91502930674327     
  0.177122689737000       0.525563167531000        8.98801985786195     
  0.177958265101000       0.472890456357000        9.10084635620072     
  0.825657512618000       0.526047436935000        8.80019812184840     
  0.218919556832000       0.758146554162000        8.07366225471701     
  0.253533699846000       0.780118715941000        12.2995236566500     
  0.296578451303000       0.776478478256000        7.53121793067459     
  0.345433533766000       0.775200264237000        8.31758889353740     
  0.395115561832000       0.773356384169000        8.47462314412147     
  0.222256044673000       0.706757592544000        9.80396991680420     
  0.222440333390000       0.654902861122000        8.52999920129617     
  0.222937797913000       0.603511116743000        8.74254621069503     
  0.757210458819000       0.220307413405000        8.23832147261580     
  0.779460927752000       0.255248179234000        12.5244731068778     
  0.776405559903000       0.299085035142000        7.78099467220297     
  0.776747869466000       0.348936416938000        8.54947477691166     
  0.777108592511000       0.399486414120000        8.62053469544411     
  0.705134405551000       0.223906782617000        10.0835210403718     
  0.653197663728000       0.222780673901000        8.63605909971817     
  0.602114205468000       0.220935943366000        8.72227134630792     
  0.779500607538000       0.757652510061000        8.29552783452259     
  0.744407469323000       0.780079249712000        12.6175344057816     
  0.700020289940000       0.777569203762000        7.84635441356134     
  0.649219141230000       0.780025803058000        9.77745557637563     
  0.599362338761000       0.790147983887000        8.85716171752256     
  0.776279434511000       0.705778964804000        10.0465834770846     
  0.778234321714000       0.654000013999000        8.52933071776084     
  0.780529613659000       0.603092118405000        8.60428321478423     
  0.219605071268000       0.241595082017000        8.12709095020713     
  0.254352241930000       0.219431216148000        12.3841004386938     
  0.297900250481000       0.222662586354000        7.66786613546100     
  0.347436527208000       0.222987811364000        8.47944084338102     
  0.397688124165000       0.223250612490000        8.59822036346790     
  0.223411541245000       0.293084946676000        9.91332415068433     
  0.224138931769000       0.345047505310000        8.64659243406223     
  0.224878248626000       0.396477421326000        8.83915852596019     
  0.446594600879000       0.772852078082000        9.79761776860580     
  0.268369367203000       0.732847442987000        4.72430635729631     
  0.731006952054000       0.271227783857000        5.06019287511924     
  0.727977527756000       0.731713173728000        5.11896322191767     
  0.269813423675000       0.266918703299000        4.86446658525529     
  0.448577569956000       0.222311289096000        8.72688148980383     
  0.499832453765000       0.220854720772000        8.66386377234185     
  0.550978099746000       0.219995274934000        8.69863092805758     
  0.778317232405000       0.450428893824000        8.71510626875360     
  0.224516849970000       0.448128190695000        8.93331211862078     
  0.223142215936000       0.551917800050000        8.90935217613328     
  0.223621499165000       0.500049101675000        9.02192508957750     
  0.675211815918000       0.268651124314000        8.50081662740481     
  0.625467670485000       0.266412681280000        7.93026034269253     
  0.265020470371000       0.679196435208000        7.38078489323631     
  0.267309040563000       0.628939917902000        8.61121602504213     
  0.732198902497000       0.675962921742000        8.65234443059738     
  0.735720028847000       0.626454606358000        7.77070346082951     
  0.267289648936000       0.321188372377000        7.60170274066817     
  0.270251671845000       0.372058227713000        8.95596149741952     
  0.781283046315000       0.552204717116000        8.50458361495738     
  0.670905277980000       0.734088912637000        8.99703641253211     
  0.323891419456000       0.265687354496000        7.53185823591990     
  0.373941475380000       0.268330625265000        8.69769746014835     
  0.321684056266000       0.733688396427000        7.29907061242320     
  0.371023490517000       0.729844842014000        8.46478699903588     
  0.733064595768000       0.325822476455000        7.76106860848774     
  0.731885469241000       0.376414287970000        8.82071606880791     
  0.613570879057000       0.734432180415000        6.21860678575499     
  0.301896788119000       0.697868674272000        10.8666413348963     
  0.693569760015000       0.307167599165000        12.8106721812446     
  0.304613347845000       0.302418740167000        11.2056134264627     
  0.692347981652000       0.694061610230000        12.9569405089914     
  0.780040101805000       0.501423095355000        8.68224542009507     
  0.314366201660000       0.346828521306000        8.05196253939723     
  0.310034165131000       0.654638919562000        7.63913843532720     
  0.643585118222000       0.318857160609000        5.45397769289875     
  0.683706809789000       0.643881485502000        4.95728414661469     
  0.503674081111000       0.776402117394000        6.84544927563468     
  0.559492478646000       0.759742946983000        10.3349064351341     